 -0.12000000000000000          0.0000000000000000     
 -0.11995000000000000          0.0000000000000000     
 -0.11989999999999999          0.0000000000000000     
 -0.11985000000000000          0.0000000000000000     
 -0.11979999999999999          0.0000000000000000     
 -0.11975000000000000          0.0000000000000000     
 -0.11970000000000000          0.0000000000000000     
 -0.11964999999999999          0.0000000000000000     
 -0.11960000000000000          0.0000000000000000     
 -0.11954999999999999          0.0000000000000000     
 -0.11950000000000000          0.0000000000000000     
 -0.11945000000000000          0.0000000000000000     
 -0.11939999999999999          0.0000000000000000     
 -0.11935000000000000          0.0000000000000000     
 -0.11929999999999999          0.0000000000000000     
 -0.11924999999999999          0.0000000000000000     
 -0.11920000000000000          0.0000000000000000     
 -0.11914999999999999          0.0000000000000000     
 -0.11910000000000000          0.0000000000000000     
 -0.11904999999999999          0.0000000000000000     
 -0.11899999999999999          0.0000000000000000     
 -0.11895000000000000          0.0000000000000000     
 -0.11889999999999999          0.0000000000000000     
 -0.11885000000000000          0.0000000000000000     
 -0.11879999999999999          0.0000000000000000     
 -0.11874999999999999          0.0000000000000000     
 -0.11870000000000000          0.0000000000000000     
 -0.11864999999999999          0.0000000000000000     
 -0.11860000000000000          0.0000000000000000     
 -0.11854999999999999          0.0000000000000000     
 -0.11849999999999999          0.0000000000000000     
 -0.11845000000000000          0.0000000000000000     
 -0.11839999999999999          0.0000000000000000     
 -0.11835000000000000          0.0000000000000000     
 -0.11829999999999999          0.0000000000000000     
 -0.11824999999999999          0.0000000000000000     
 -0.11820000000000000          0.0000000000000000     
 -0.11814999999999999          0.0000000000000000     
 -0.11810000000000000          0.0000000000000000     
 -0.11805000000000000          0.0000000000000000     
 -0.11799999999999999          0.0000000000000000     
 -0.11795000000000000          0.0000000000000000     
 -0.11789999999999999          0.0000000000000000     
 -0.11785000000000000          0.0000000000000000     
 -0.11780000000000000          0.0000000000000000     
 -0.11774999999999999          0.0000000000000000     
 -0.11770000000000000          0.0000000000000000     
 -0.11764999999999999          0.0000000000000000     
 -0.11760000000000000          0.0000000000000000     
 -0.11755000000000000          0.0000000000000000     
 -0.11749999999999999          0.0000000000000000     
 -0.11745000000000000          0.0000000000000000     
 -0.11739999999999999          0.0000000000000000     
 -0.11735000000000000          0.0000000000000000     
 -0.11730000000000000          0.0000000000000000     
 -0.11724999999999999          0.0000000000000000     
 -0.11720000000000000          0.0000000000000000     
 -0.11714999999999999          0.0000000000000000     
 -0.11710000000000000          0.0000000000000000     
 -0.11705000000000000          0.0000000000000000     
 -0.11699999999999999          0.0000000000000000     
 -0.11695000000000000          0.0000000000000000     
 -0.11689999999999999          0.0000000000000000     
 -0.11685000000000000          0.0000000000000000     
 -0.11680000000000000          0.0000000000000000     
 -0.11674999999999999          0.0000000000000000     
 -0.11670000000000000          0.0000000000000000     
 -0.11664999999999999          0.0000000000000000     
 -0.11660000000000000          0.0000000000000000     
 -0.11655000000000000          0.0000000000000000     
 -0.11649999999999999          0.0000000000000000     
 -0.11645000000000000          0.0000000000000000     
 -0.11639999999999999          0.0000000000000000     
 -0.11635000000000000          0.0000000000000000     
 -0.11630000000000000          0.0000000000000000     
 -0.11624999999999999          0.0000000000000000     
 -0.11620000000000000          0.0000000000000000     
 -0.11614999999999999          0.0000000000000000     
 -0.11609999999999999          0.0000000000000000     
 -0.11605000000000000          0.0000000000000000     
 -0.11599999999999999          0.0000000000000000     
 -0.11595000000000000          0.0000000000000000     
 -0.11589999999999999          0.0000000000000000     
 -0.11584999999999999          0.0000000000000000     
 -0.11580000000000000          0.0000000000000000     
 -0.11574999999999999          0.0000000000000000     
 -0.11570000000000000          0.0000000000000000     
 -0.11564999999999999          0.0000000000000000     
 -0.11559999999999999          0.0000000000000000     
 -0.11555000000000000          0.0000000000000000     
 -0.11549999999999999          0.0000000000000000     
 -0.11545000000000000          0.0000000000000000     
 -0.11540000000000000          0.0000000000000000     
 -0.11534999999999999          0.0000000000000000     
 -0.11530000000000000          0.0000000000000000     
 -0.11524999999999999          0.0000000000000000     
 -0.11520000000000000          0.0000000000000000     
 -0.11515000000000000          0.0000000000000000     
 -0.11509999999999999          0.0000000000000000     
 -0.11505000000000000          0.0000000000000000     
 -0.11499999999999999          0.0000000000000000     
 -0.11495000000000000          0.0000000000000000     
 -0.11490000000000000          0.0000000000000000     
 -0.11484999999999999          0.0000000000000000     
 -0.11480000000000000          0.0000000000000000     
 -0.11474999999999999          0.0000000000000000     
 -0.11470000000000000          0.0000000000000000     
 -0.11465000000000000          0.0000000000000000     
 -0.11459999999999999          0.0000000000000000     
 -0.11455000000000000          0.0000000000000000     
 -0.11449999999999999          0.0000000000000000     
 -0.11445000000000000          0.0000000000000000     
 -0.11440000000000000          0.0000000000000000     
 -0.11434999999999999          0.0000000000000000     
 -0.11430000000000000          0.0000000000000000     
 -0.11424999999999999          0.0000000000000000     
 -0.11420000000000000          0.0000000000000000     
 -0.11415000000000000          0.0000000000000000     
 -0.11409999999999999          0.0000000000000000     
 -0.11405000000000000          0.0000000000000000     
 -0.11399999999999999          0.0000000000000000     
 -0.11395000000000000          0.0000000000000000     
 -0.11390000000000000          0.0000000000000000     
 -0.11384999999999999          0.0000000000000000     
 -0.11380000000000000          0.0000000000000000     
 -0.11374999999999999          0.0000000000000000     
 -0.11370000000000000          0.0000000000000000     
 -0.11365000000000000          0.0000000000000000     
 -0.11359999999999999          0.0000000000000000     
 -0.11355000000000000          0.0000000000000000     
 -0.11349999999999999          0.0000000000000000     
 -0.11345000000000000          0.0000000000000000     
 -0.11340000000000000          0.0000000000000000     
 -0.11334999999999999          0.0000000000000000     
 -0.11330000000000000          0.0000000000000000     
 -0.11324999999999999          0.0000000000000000     
 -0.11320000000000000          0.0000000000000000     
 -0.11315000000000000          0.0000000000000000     
 -0.11309999999999999          0.0000000000000000     
 -0.11305000000000000          0.0000000000000000     
 -0.11299999999999999          0.0000000000000000     
 -0.11294999999999999          0.0000000000000000     
 -0.11290000000000000          0.0000000000000000     
 -0.11284999999999999          0.0000000000000000     
 -0.11280000000000000          0.0000000000000000     
 -0.11274999999999999          0.0000000000000000     
 -0.11269999999999999          0.0000000000000000     
 -0.11265000000000000          0.0000000000000000     
 -0.11259999999999999          0.0000000000000000     
 -0.11255000000000000          0.0000000000000000     
 -0.11249999999999999          0.0000000000000000     
 -0.11244999999999999          0.0000000000000000     
 -0.11240000000000000          0.0000000000000000     
 -0.11234999999999999          0.0000000000000000     
 -0.11230000000000000          0.0000000000000000     
 -0.11224999999999999          0.0000000000000000     
 -0.11219999999999999          0.0000000000000000     
 -0.11215000000000000          0.0000000000000000     
 -0.11209999999999999          0.0000000000000000     
 -0.11205000000000000          0.0000000000000000     
 -0.11199999999999999          0.0000000000000000     
 -0.11194999999999999          0.0000000000000000     
 -0.11190000000000000          0.0000000000000000     
 -0.11184999999999999          0.0000000000000000     
 -0.11180000000000000          0.0000000000000000     
 -0.11174999999999999          0.0000000000000000     
 -0.11169999999999999          0.0000000000000000     
 -0.11165000000000000          0.0000000000000000     
 -0.11159999999999999          0.0000000000000000     
 -0.11155000000000000          0.0000000000000000     
 -0.11149999999999999          0.0000000000000000     
 -0.11144999999999999          0.0000000000000000     
 -0.11140000000000000          0.0000000000000000     
 -0.11134999999999999          0.0000000000000000     
 -0.11130000000000000          0.0000000000000000     
 -0.11124999999999999          0.0000000000000000     
 -0.11119999999999999          0.0000000000000000     
 -0.11115000000000000          0.0000000000000000     
 -0.11109999999999999          0.0000000000000000     
 -0.11105000000000000          0.0000000000000000     
 -0.11099999999999999          0.0000000000000000     
 -0.11094999999999999          0.0000000000000000     
 -0.11090000000000000          0.0000000000000000     
 -0.11084999999999999          0.0000000000000000     
 -0.11080000000000000          0.0000000000000000     
 -0.11074999999999999          0.0000000000000000     
 -0.11069999999999999          0.0000000000000000     
 -0.11065000000000000          0.0000000000000000     
 -0.11059999999999999          0.0000000000000000     
 -0.11055000000000000          0.0000000000000000     
 -0.11050000000000000          0.0000000000000000     
 -0.11044999999999999          0.0000000000000000     
 -0.11040000000000000          0.0000000000000000     
 -0.11034999999999999          0.0000000000000000     
 -0.11030000000000000          0.0000000000000000     
 -0.11025000000000000          0.0000000000000000     
 -0.11019999999999999          0.0000000000000000     
 -0.11015000000000000          0.0000000000000000     
 -0.11009999999999999          0.0000000000000000     
 -0.11005000000000000          0.0000000000000000     
 -0.11000000000000000          0.0000000000000000     
 -0.10994999999999999          0.0000000000000000     
 -0.10990000000000000          0.0000000000000000     
 -0.10984999999999999          0.0000000000000000     
 -0.10979999999999999          0.0000000000000000     
 -0.10975000000000000          0.0000000000000000     
 -0.10969999999999999          0.0000000000000000     
 -0.10965000000000000          0.0000000000000000     
 -0.10959999999999999          0.0000000000000000     
 -0.10954999999999999          0.0000000000000000     
 -0.10950000000000000          0.0000000000000000     
 -0.10944999999999999          0.0000000000000000     
 -0.10940000000000000          0.0000000000000000     
 -0.10935000000000000          0.0000000000000000     
 -0.10929999999999999          0.0000000000000000     
 -0.10925000000000000          0.0000000000000000     
 -0.10919999999999999          0.0000000000000000     
 -0.10915000000000000          0.0000000000000000     
 -0.10910000000000000          0.0000000000000000     
 -0.10904999999999999          0.0000000000000000     
 -0.10900000000000000          0.0000000000000000     
 -0.10894999999999999          0.0000000000000000     
 -0.10890000000000000          0.0000000000000000     
 -0.10885000000000000          0.0000000000000000     
 -0.10879999999999999          0.0000000000000000     
 -0.10875000000000000          0.0000000000000000     
 -0.10869999999999999          0.0000000000000000     
 -0.10865000000000000          0.0000000000000000     
 -0.10860000000000000          0.0000000000000000     
 -0.10854999999999999          0.0000000000000000     
 -0.10850000000000000          0.0000000000000000     
 -0.10844999999999999          0.0000000000000000     
 -0.10840000000000000          0.0000000000000000     
 -0.10835000000000000          0.0000000000000000     
 -0.10829999999999999          0.0000000000000000     
 -0.10825000000000000          0.0000000000000000     
 -0.10819999999999999          0.0000000000000000     
 -0.10815000000000000          0.0000000000000000     
 -0.10810000000000000          0.0000000000000000     
 -0.10804999999999999          0.0000000000000000     
 -0.10800000000000000          0.0000000000000000     
 -0.10794999999999999          0.0000000000000000     
 -0.10790000000000000          0.0000000000000000     
 -0.10785000000000000          0.0000000000000000     
 -0.10779999999999999          0.0000000000000000     
 -0.10775000000000000          0.0000000000000000     
 -0.10769999999999999          0.0000000000000000     
 -0.10765000000000000          0.0000000000000000     
 -0.10760000000000000          0.0000000000000000     
 -0.10754999999999999          0.0000000000000000     
 -0.10750000000000000          0.0000000000000000     
 -0.10744999999999999          0.0000000000000000     
 -0.10740000000000000          0.0000000000000000     
 -0.10735000000000000          0.0000000000000000     
 -0.10729999999999999          0.0000000000000000     
 -0.10725000000000000          0.0000000000000000     
 -0.10719999999999999          0.0000000000000000     
 -0.10715000000000000          0.0000000000000000     
 -0.10710000000000000          0.0000000000000000     
 -0.10704999999999999          0.0000000000000000     
 -0.10700000000000000          0.0000000000000000     
 -0.10694999999999999          0.0000000000000000     
 -0.10690000000000000          0.0000000000000000     
 -0.10685000000000000          0.0000000000000000     
 -0.10679999999999999          0.0000000000000000     
 -0.10675000000000000          0.0000000000000000     
 -0.10669999999999999          0.0000000000000000     
 -0.10664999999999999          0.0000000000000000     
 -0.10660000000000000          0.0000000000000000     
 -0.10654999999999999          0.0000000000000000     
 -0.10650000000000000          0.0000000000000000     
 -0.10644999999999999          0.0000000000000000     
 -0.10639999999999999          0.0000000000000000     
 -0.10635000000000000          0.0000000000000000     
 -0.10629999999999999          0.0000000000000000     
 -0.10625000000000000          0.0000000000000000     
 -0.10619999999999999          0.0000000000000000     
 -0.10614999999999999          0.0000000000000000     
 -0.10610000000000000          0.0000000000000000     
 -0.10604999999999999          0.0000000000000000     
 -0.10600000000000000          0.0000000000000000     
 -0.10594999999999999          0.0000000000000000     
 -0.10589999999999999          0.0000000000000000     
 -0.10585000000000000          0.0000000000000000     
 -0.10579999999999999          0.0000000000000000     
 -0.10575000000000000          0.0000000000000000     
 -0.10569999999999999          0.0000000000000000     
 -0.10564999999999999          0.0000000000000000     
 -0.10560000000000000          0.0000000000000000     
 -0.10554999999999999          0.0000000000000000     
 -0.10550000000000000          0.0000000000000000     
 -0.10544999999999999          0.0000000000000000     
 -0.10539999999999999          0.0000000000000000     
 -0.10535000000000000          0.0000000000000000     
 -0.10529999999999999          0.0000000000000000     
 -0.10525000000000000          0.0000000000000000     
 -0.10519999999999999          0.0000000000000000     
 -0.10514999999999999          0.0000000000000000     
 -0.10510000000000000          0.0000000000000000     
 -0.10504999999999999          0.0000000000000000     
 -0.10500000000000000          0.0000000000000000     
 -0.10494999999999999          0.0000000000000000     
 -0.10489999999999999          0.0000000000000000     
 -0.10485000000000000          0.0000000000000000     
 -0.10479999999999999          0.0000000000000000     
 -0.10475000000000000          0.0000000000000000     
 -0.10469999999999999          0.0000000000000000     
 -0.10464999999999999          0.0000000000000000     
 -0.10460000000000000          0.0000000000000000     
 -0.10454999999999999          0.0000000000000000     
 -0.10450000000000000          0.0000000000000000     
 -0.10444999999999999          0.0000000000000000     
 -0.10439999999999999          0.0000000000000000     
 -0.10435000000000000          0.0000000000000000     
 -0.10429999999999999          0.0000000000000000     
 -0.10425000000000000          0.0000000000000000     
 -0.10419999999999999          0.0000000000000000     
 -0.10414999999999999          0.0000000000000000     
 -0.10410000000000000          0.0000000000000000     
 -0.10404999999999999          0.0000000000000000     
 -0.10400000000000000          0.0000000000000000     
 -0.10394999999999999          0.0000000000000000     
 -0.10389999999999999          0.0000000000000000     
 -0.10385000000000000          0.0000000000000000     
 -0.10380000000000000          0.0000000000000000     
 -0.10375000000000000          0.0000000000000000     
 -0.10369999999999999          0.0000000000000000     
 -0.10364999999999999          0.0000000000000000     
 -0.10360000000000000          0.0000000000000000     
 -0.10355000000000000          0.0000000000000000     
 -0.10349999999999999          0.0000000000000000     
 -0.10344999999999999          0.0000000000000000     
 -0.10339999999999999          0.0000000000000000     
 -0.10335000000000000          0.0000000000000000     
 -0.10330000000000000          0.0000000000000000     
 -0.10324999999999999          0.0000000000000000     
 -0.10319999999999999          0.0000000000000000     
 -0.10314999999999999          0.0000000000000000     
 -0.10310000000000000          0.0000000000000000     
 -0.10305000000000000          0.0000000000000000     
 -0.10299999999999999          0.0000000000000000     
 -0.10295000000000000          0.0000000000000000     
 -0.10289999999999999          0.0000000000000000     
 -0.10285000000000000          0.0000000000000000     
 -0.10280000000000000          0.0000000000000000     
 -0.10274999999999999          0.0000000000000000     
 -0.10270000000000000          0.0000000000000000     
 -0.10264999999999999          0.0000000000000000     
 -0.10260000000000000          0.0000000000000000     
 -0.10255000000000000          0.0000000000000000     
 -0.10249999999999999          0.0000000000000000     
 -0.10245000000000000          0.0000000000000000     
 -0.10239999999999999          0.0000000000000000     
 -0.10235000000000000          0.0000000000000000     
 -0.10230000000000000          0.0000000000000000     
 -0.10224999999999999          0.0000000000000000     
 -0.10220000000000000          0.0000000000000000     
 -0.10214999999999999          0.0000000000000000     
 -0.10210000000000000          0.0000000000000000     
 -0.10205000000000000          0.0000000000000000     
 -0.10199999999999999          0.0000000000000000     
 -0.10195000000000000          0.0000000000000000     
 -0.10189999999999999          0.0000000000000000     
 -0.10185000000000000          0.0000000000000000     
 -0.10180000000000000          0.0000000000000000     
 -0.10174999999999999          0.0000000000000000     
 -0.10170000000000000          0.0000000000000000     
 -0.10164999999999999          0.0000000000000000     
 -0.10160000000000000          0.0000000000000000     
 -0.10155000000000000          0.0000000000000000     
 -0.10149999999999999          0.0000000000000000     
 -0.10145000000000000          0.0000000000000000     
 -0.10139999999999999          0.0000000000000000     
 -0.10135000000000000          0.0000000000000000     
 -0.10130000000000000          0.0000000000000000     
 -0.10124999999999999          0.0000000000000000     
 -0.10120000000000000          0.0000000000000000     
 -0.10114999999999999          0.0000000000000000     
 -0.10110000000000000          0.0000000000000000     
 -0.10105000000000000          0.0000000000000000     
 -0.10099999999999999          0.0000000000000000     
 -0.10095000000000000          0.0000000000000000     
 -0.10089999999999999          0.0000000000000000     
 -0.10085000000000000          0.0000000000000000     
 -0.10080000000000000          0.0000000000000000     
 -0.10074999999999999          0.0000000000000000     
 -0.10070000000000000          0.0000000000000000     
 -0.10064999999999999          0.0000000000000000     
 -0.10059999999999999          0.0000000000000000     
 -0.10055000000000000          0.0000000000000000     
 -0.10049999999999999          0.0000000000000000     
 -0.10045000000000000          0.0000000000000000     
 -0.10039999999999999          0.0000000000000000     
 -0.10034999999999999          0.0000000000000000     
 -0.10030000000000000          0.0000000000000000     
 -0.10024999999999999          0.0000000000000000     
 -0.10020000000000000          0.0000000000000000     
 -0.10014999999999999          0.0000000000000000     
 -0.10009999999999999          0.0000000000000000     
 -0.10005000000000000          0.0000000000000000     
  -9.9999999999999992E-002     0.0000000000000000     
  -9.9949999999999997E-002     0.0000000000000000     
  -9.9899999999999989E-002     0.0000000000000000     
  -9.9849999999999994E-002     0.0000000000000000     
  -9.9800000000000000E-002     0.0000000000000000     
  -9.9749999999999991E-002     0.0000000000000000     
  -9.9699999999999997E-002     0.0000000000000000     
  -9.9649999999999989E-002     0.0000000000000000     
  -9.9599999999999994E-002     0.0000000000000000     
  -9.9550000000000000E-002     0.0000000000000000     
  -9.9499999999999991E-002     0.0000000000000000     
  -9.9449999999999997E-002     0.0000000000000000     
  -9.9399999999999988E-002     0.0000000000000000     
  -9.9349999999999994E-002     0.0000000000000000     
  -9.9299999999999999E-002     0.0000000000000000     
  -9.9249999999999991E-002     0.0000000000000000     
  -9.9199999999999997E-002     0.0000000000000000     
  -9.9149999999999988E-002     0.0000000000000000     
  -9.9099999999999994E-002     0.0000000000000000     
  -9.9049999999999999E-002     0.0000000000000000     
  -9.8999999999999991E-002     0.0000000000000000     
  -9.8949999999999996E-002     0.0000000000000000     
  -9.8899999999999988E-002     0.0000000000000000     
  -9.8849999999999993E-002     0.0000000000000000     
  -9.8799999999999999E-002     0.0000000000000000     
  -9.8749999999999991E-002     0.0000000000000000     
  -9.8699999999999996E-002     0.0000000000000000     
  -9.8649999999999988E-002     0.0000000000000000     
  -9.8599999999999993E-002     0.0000000000000000     
  -9.8549999999999999E-002     0.0000000000000000     
  -9.8499999999999990E-002     0.0000000000000000     
  -9.8449999999999996E-002     0.0000000000000000     
  -9.8399999999999987E-002     0.0000000000000000     
  -9.8349999999999993E-002     0.0000000000000000     
  -9.8299999999999998E-002     0.0000000000000000     
  -9.8249999999999990E-002     0.0000000000000000     
  -9.8199999999999996E-002     0.0000000000000000     
  -9.8149999999999987E-002     0.0000000000000000     
  -9.8099999999999993E-002     0.0000000000000000     
  -9.8049999999999998E-002     0.0000000000000000     
  -9.7999999999999990E-002     0.0000000000000000     
  -9.7949999999999995E-002     0.0000000000000000     
  -9.7899999999999987E-002     0.0000000000000000     
  -9.7849999999999993E-002     0.0000000000000000     
  -9.7799999999999998E-002     0.0000000000000000     
  -9.7749999999999990E-002     0.0000000000000000     
  -9.7699999999999995E-002     0.0000000000000000     
  -9.7649999999999987E-002     0.0000000000000000     
  -9.7599999999999992E-002     0.0000000000000000     
  -9.7549999999999998E-002     0.0000000000000000     
  -9.7499999999999989E-002     0.0000000000000000     
  -9.7449999999999995E-002     0.0000000000000000     
  -9.7399999999999987E-002     0.0000000000000000     
  -9.7349999999999992E-002     0.0000000000000000     
  -9.7299999999999998E-002     0.0000000000000000     
  -9.7250000000000003E-002     0.0000000000000000     
  -9.7199999999999995E-002     0.0000000000000000     
  -9.7149999999999986E-002     0.0000000000000000     
  -9.7099999999999992E-002     0.0000000000000000     
  -9.7049999999999997E-002     0.0000000000000000     
  -9.7000000000000003E-002     0.0000000000000000     
  -9.6949999999999995E-002     0.0000000000000000     
  -9.6899999999999986E-002     0.0000000000000000     
  -9.6849999999999992E-002     0.0000000000000000     
  -9.6799999999999997E-002     0.0000000000000000     
  -9.6750000000000003E-002     0.0000000000000000     
  -9.6699999999999994E-002     0.0000000000000000     
  -9.6649999999999986E-002     0.0000000000000000     
  -9.6599999999999991E-002     0.0000000000000000     
  -9.6549999999999997E-002     0.0000000000000000     
  -9.6500000000000002E-002     0.0000000000000000     
  -9.6449999999999994E-002     0.0000000000000000     
  -9.6400000000000000E-002     0.0000000000000000     
  -9.6349999999999991E-002     0.0000000000000000     
  -9.6299999999999997E-002     0.0000000000000000     
  -9.6250000000000002E-002     0.0000000000000000     
  -9.6199999999999994E-002     0.0000000000000000     
  -9.6149999999999999E-002     0.0000000000000000     
  -9.6099999999999991E-002     0.0000000000000000     
  -9.6049999999999996E-002     0.0000000000000000     
  -9.6000000000000002E-002     0.0000000000000000     
  -9.5949999999999994E-002     0.0000000000000000     
  -9.5899999999999999E-002     0.0000000000000000     
  -9.5849999999999991E-002     0.0000000000000000     
  -9.5799999999999996E-002     0.0000000000000000     
  -9.5750000000000002E-002     0.0000000000000000     
  -9.5699999999999993E-002     0.0000000000000000     
  -9.5649999999999999E-002     0.0000000000000000     
  -9.5599999999999991E-002     0.0000000000000000     
  -9.5549999999999996E-002     0.0000000000000000     
  -9.5500000000000002E-002     0.0000000000000000     
  -9.5449999999999993E-002     0.0000000000000000     
  -9.5399999999999999E-002     0.0000000000000000     
  -9.5349999999999990E-002     0.0000000000000000     
  -9.5299999999999996E-002     0.0000000000000000     
  -9.5250000000000001E-002     0.0000000000000000     
  -9.5199999999999993E-002     0.0000000000000000     
  -9.5149999999999998E-002     0.0000000000000000     
  -9.5099999999999990E-002     0.0000000000000000     
  -9.5049999999999996E-002     0.0000000000000000     
  -9.5000000000000001E-002     0.0000000000000000     
  -9.4949999999999993E-002     0.0000000000000000     
  -9.4899999999999998E-002     0.0000000000000000     
  -9.4849999999999990E-002     0.0000000000000000     
  -9.4799999999999995E-002     0.0000000000000000     
  -9.4750000000000001E-002     0.0000000000000000     
  -9.4699999999999993E-002     0.0000000000000000     
  -9.4649999999999998E-002     0.0000000000000000     
  -9.4599999999999990E-002     0.0000000000000000     
  -9.4549999999999995E-002     0.0000000000000000     
  -9.4500000000000001E-002     0.0000000000000000     
  -9.4449999999999992E-002     0.0000000000000000     
  -9.4399999999999998E-002     0.0000000000000000     
  -9.4349999999999989E-002     0.0000000000000000     
  -9.4299999999999995E-002     0.0000000000000000     
  -9.4250000000000000E-002     0.0000000000000000     
  -9.4199999999999992E-002     0.0000000000000000     
  -9.4149999999999998E-002     0.0000000000000000     
  -9.4099999999999989E-002     0.0000000000000000     
  -9.4049999999999995E-002     0.0000000000000000     
  -9.4000000000000000E-002     0.0000000000000000     
  -9.3949999999999992E-002     0.0000000000000000     
  -9.3899999999999997E-002     0.0000000000000000     
  -9.3849999999999989E-002     0.0000000000000000     
  -9.3799999999999994E-002     0.0000000000000000     
  -9.3750000000000000E-002     0.0000000000000000     
  -9.3699999999999992E-002     0.0000000000000000     
  -9.3649999999999997E-002     0.0000000000000000     
  -9.3599999999999989E-002     0.0000000000000000     
  -9.3549999999999994E-002     0.0000000000000000     
  -9.3500000000000000E-002     0.0000000000000000     
  -9.3449999999999991E-002     0.0000000000000000     
  -9.3399999999999997E-002     0.0000000000000000     
  -9.3349999999999989E-002     0.0000000000000000     
  -9.3299999999999994E-002     0.0000000000000000     
  -9.3250000000000000E-002     0.0000000000000000     
  -9.3199999999999991E-002     0.0000000000000000     
  -9.3149999999999997E-002     0.0000000000000000     
  -9.3099999999999988E-002     0.0000000000000000     
  -9.3049999999999994E-002     0.0000000000000000     
  -9.2999999999999999E-002     0.0000000000000000     
  -9.2949999999999991E-002     0.0000000000000000     
  -9.2899999999999996E-002     0.0000000000000000     
  -9.2849999999999988E-002     0.0000000000000000     
  -9.2799999999999994E-002     0.0000000000000000     